 
 
 
10 atoms
9 bonds
4 atom types
5 bond types
 
  -5.00000000000000   5.0000000000000 xlo xhi
  -5.0000000000000   5.0000000000000 ylo yhi
  -0.0000000000000   0.0000000000000 zlo zhi

Masses

1 12.0107 # C
2 1.00794 # H
3 14.0067 # N
4 15.9994 # O
 
Atoms
 
       1  1   1.25	1.25	0.  300 1
       2  1   -1.25     -1.25	0.  300 1
       3  1   2.5        1.25      0.  300 1
       4  1   -2.5      -1.25      0.  300 4
       5  1   0.        0.      0.  300 3
       6  1   0.        0.      0.  300 2
       7  1   0.        0.      0.  300 2
       8  1   0.        0.      0.  300 2
       9  1   0.        0.      0.  300 2
       10  1   0.        0.      0.  300 2

 
Bonds

       1    1    2    1
       1    2    3    1
       5    4    3    1
       3    5    3    1
       2    1    6    1
       2    1    7    1
       2    2    8    1
       4    5    9    1
       4    5   10    1

Bond Coeffs

1	25          1.54	
2       25	    1.09	
3	25	    1.40	
4	25	    1.43	
5       25           2.6	