 
 
 
10 atoms
9 bonds
4 atom types
5 bond types
 
  -5.00000000000000   5.0000000000000 xlo xhi
  -5.0000000000000   5.0000000000000 ylo yhi
  -0.50000000000000   0.50000000000000 zlo zhi

Masses

1 12.0107 # C
2 1.00794 # H
3 14.0067 # N
4 15.9994 # O
 
Atoms
 
       1    1   0   1.25	1.25	0.  
       2    1   0   -1.25  -1.25	0.   
       3    1   0   2.5     1.25      0.   
       4    2   0   -2.5   -1.25      0.   
       5    2   0   -3.75   1.25      0.   
       6    2   0   3.75    -1.25      0.  
       7    2   0   -1.25    1.25      0.   
       8    2   0   1.25    -1.25      0.  
       9    4   0   -2.5     1.25      0.   
       10   3   0   2.5    -1.25      0.   
 

Bond Coeffs

1	25          1.54	
2       25	    1.09	
3	25	    1.40	
4	25	    1.43	
5       25           2.6
 


Bonds

       1    1    1    2
       2    2    1    4
       3    2    1    5
       4    2    2    6
       5    1    2    3
       6    3    3    9
       7    4    3    10
       8    5    10    8
       9    5    10    7

	